                               Psi4 1.8.1 release

  ==> Input File <==

--------------------------------------------------------------------------
molecule mol {
    0 1
    C   -0.35075348  -0.00507298  -0.01802813
    O    0.96437042  -0.36240239  -0.26012000
    H   -0.59845665   0.06164932   1.05237343
    H   -0.98625455  -0.81567528  -0.46260344
    H   -0.65785687   0.92689831  -0.50107706
    H    1.62895112   0.19460302   0.18945519
    units angstrom
    no_com
    no_reorient
}

set {
  basis 6-31g*
  dft_spherical_points 434
  dft_radial_points 85
  dft_pruning_scheme robust
}

Ewfn = prop('hf', properties = ['GRID_ESP', 'GRID_FIELD'], return_wfn=True)
mol.save_xyz_file('final-geometry.xyz', 1)
--------------------------------------------------------------------------

    Molecular point group: c1

    Geometry (in Angstrom), charge = 0, multiplicity = 1:

       Center              X                  Y                   Z               Mass
    ------------   -----------------  -----------------  -----------------  -----------------
         C           -0.350753480000    -0.005072980000    -0.018028130000    12.000000000000
         O            0.964370420000    -0.362402390000    -0.260120000000    15.994914619570
         H           -0.598456650000     0.061649320000     1.052373430000     1.007825032230
         H           -0.986254550000    -0.815675280000    -0.462603440000     1.007825032230
         H           -0.657856870000     0.926898310000    -0.501077060000     1.007825032230
         H            1.628951120000     0.194603020000     0.189455190000     1.007825032230

  Charge       = 0
  Multiplicity = 1
  Basis Set: 6-31G*
    Blend: 6-31G*
  Basis Set: (6-31G* AUX)
    Blend: CC-PVDZ-JKFIT

    Orbital Energies [Eh]
    ---------------------

    Doubly Occupied:

       1A    -20.558698     2A    -11.272663     3A     -1.356881
       4A     -0.919528     5A     -0.691639     6A     -0.619016
       7A     -0.593757     8A     -0.483327     9A     -0.440764

  @DF-RHF Final Energy:  -115.03194717776711

   => Energetics <=

    Nuclear Repulsion Energy =             40.5613579491835168
    One-Electron Energy =                -237.3140661328629335
    Two-Electron Energy =                  81.7207610059123226
    Total Energy =                       -115.0319471777671083
 Dipole X            :         -9.5567995            9.4426317           -0.1141678
 Dipole Y            :          5.3849419           -4.8418216            0.5431203
 Dipole Z            :          4.0347320           -3.6112301            0.4235019
 Magnitude           :                                                    0.6981173
*** Psi4 exiting successfully. Buy a developer a beer!
